# =========================================================================
# LAMMPS file for 'read_data' command                                      
#                                                                          
# Generated using SELM_Builder GUI by Paul J. Atzberger.                   
#                                                                          
# =========================================================================


# =========================================================================
# Description:
# -------------------------------------------------------------------------
# 
# SELM_Lagrangian = SELM_Lagrangian_LAMMPS_ATOM_ANGLE_STYLE
# LagrangianName = OneParticle
# LagrangianTypeStr = LAMMPS_ATOM_ANGLE_STYLE
# 
# SELM_Eulerian   = SELM_Eulerian_LAMMPS_SHEAR_UNIFORM1_FFTW3
#
# atom_type = angle_type
#
# =========================================================================


# =========================================================================
# Header information:
# -------------------------------------------------------------------------
1 atoms
0 bonds
0 angles

1 atom types
0 bond types
1 angle types
# =========================================================================


# =========================================================================
# Domain Size Specification:
# -------------------------------------------------------------------------
-15.0 15.0 xlo xhi
-15.0 15.0 ylo yhi
-15.0 15.0 zlo zhi
0.0 0.0 0.0 xy xz yz
# =========================================================================


# =========================================================================
# Mass Specification:
#
# Gives for each atom the following:
#    type-ID | mass
# -------------------------------------------------------------------------
# Atom Location Specification:
#
# Gives for atom angle_type the following:
#    atom-ID | molecule-ID | type-ID | x | y | z
# -------------------------------------------------------------------------
# Bond Specification:
#
# Gives for atom angle_type the following:
#    bond-ID | type-ID | atom1-ID | atom2-ID
# -------------------------------------------------------------------------
# Angle Specification:
#
# Gives for atom angle_type the following:
#    angle-ID | type-ID | atom1-ID | atom2-ID | atom3-ID
# -------------------------------------------------------------------------
# WARNING: atom-ID, type-ID, molecule-ID must be between 1 - N             
# -------------------------------------------------------------------------
Masses

1 19.2

Atoms

1 1 1 0.0 0.0 0.0 



